#         Time       outlet
  0.000311517            0
    0.0022388-3.31854e-227
   0.00883129  7.77276e-99
    0.0130845  4.24631e-92
    0.0163341  3.77899e-89
    0.0191355 -4.05978e-85
    0.0216724 -2.04634e-82
    0.0240376 -1.05471e-78
    0.0262728  3.24215e-75
    0.0284003 -7.07736e-72
     0.030369  2.43989e-68
    0.0322125 -3.23797e-66
    0.0339639  -5.5812e-62
     0.035645   5.9844e-59
    0.0372799 -2.30524e-56
    0.0388678    9.702e-55
     0.040404  1.88253e-51
    0.0419108 -7.31309e-49
    0.0433721  1.22958e-46
    0.0447978 -1.34678e-44
    0.0461878  1.07489e-42
    0.0475606  -5.9539e-41
    0.0488903  2.31725e-39
    0.0501804 -7.22598e-38
    0.0514332  1.90282e-36
    0.0526541  -3.3184e-35
    0.0538454  2.91966e-34
    0.0550328 -5.93767e-34
     0.056257 -7.07577e-33
    0.0575571  4.76864e-32
    0.0589577 -6.09988e-31
    0.0604602 -2.41162e-31
     0.062091  1.94224e-29
      0.06388  5.72048e-29
    0.0658879  4.43186e-29
    0.0679729 -1.99029e-29
    0.0700939 -5.27725e-29
    0.0722787 -6.28496e-29
    0.0744739  -5.1839e-29
    0.0766698 -4.21626e-29
    0.0787253 -7.67507e-29
    0.0806056 -6.40689e-29
    0.0824941 -5.51755e-29
    0.0842229 -4.91235e-29
    0.0857154 -4.48249e-29
    0.0871089 -4.13163e-29
    0.0884838 -3.82386e-29
    0.0897919 -3.56428e-29
    0.0910374 -3.34637e-29
    0.0922744 -3.15685e-29
    0.0934905 -2.99545e-29
    0.0946549 -2.86364e-29
    0.0957496 -2.76147e-29
     0.096763 -2.68766e-29
      0.09773 -2.63819e-29
    0.0986881 -2.61197e-29
    0.0996664 -2.61179e-29
      0.10064 -2.64146e-29
     0.101566     -2.7e-29
     0.102476 -2.78821e-29
     0.103352 -2.90274e-29
     0.104209 -3.04274e-29
     0.105089 -3.21466e-29
     0.105998 -3.26235e-29
      0.10691 -3.46372e-29
     0.107831 -3.67981e-29
     0.108774 -3.87517e-29
     0.109711 -3.96182e-29
      0.11062 -3.87077e-29
     0.111562 -3.76427e-29
     0.112594 -4.80739e-29
     0.113732  -1.0747e-28
     0.114849 -2.29246e-28
     0.115966   -2.557e-28
      0.11714  4.07169e-28
     0.118333  2.54719e-27
     0.119611  5.10304e-27
     0.121078 -2.22059e-27
     0.122654   -3.934e-26
     0.124321 -7.27858e-26
     0.126213  9.85992e-26
     0.128493  1.16387e-24
     0.130822 -1.30814e-23
     0.133043  5.02798e-23
     0.135203  7.60463e-22
     0.137391 -2.50133e-21
     0.139619 -2.70351e-20
     0.141619 -1.64161e-20
     0.143279 -6.90603e-19
     0.144601 -2.37456e-18
     0.145761  9.93528e-17
     0.146836 -6.16708e-17
     0.147865 -4.73954e-15
     0.148862 -3.63577e-15
     0.149853  6.66374e-13
     0.150883  2.82049e-12
     0.151978 -4.11924e-12
     0.153098 -9.51264e-11
     0.154177  2.90553e-09
     0.155227  4.20353e-08
      0.15629  1.48742e-07
     0.157284  2.89613e-07
     0.158207   3.6661e-07
     0.159088  2.63229e-07
     0.159942   3.0984e-09
      0.16079   1.7385e-06
     0.161646  2.82727e-05
     0.162524  0.000115512
     0.163386  0.000290515
     0.164236  0.000567241
     0.165088   0.00093101
     0.165934   0.00131172
     0.166755   0.00162726
     0.167581   0.00186424
     0.168422   0.00203743
     0.169293   0.00216833
     0.170171   0.00228381
     0.171048   0.00242636
     0.171968   0.00261737
     0.172914   0.00286527
     0.173877   0.00320688
     0.174867    0.0037115
     0.175837   0.00450943
      0.17681   0.00580451
     0.177813   0.00778374
     0.178904   0.00951409
     0.180092   0.00903871
     0.181326   0.00697973
     0.182562    0.0048316
     0.183882   0.00319277
     0.185311   0.00207927
     0.186804   0.00139282
     0.188431  0.000961604
     0.190227  0.000648189
     0.192036   0.00044751
     0.193866   0.00031462
     0.195783  0.000226368
     0.197837  0.000167854
          0.2   0.00012667
     0.202132  9.62843e-05
     0.204292  7.22478e-05
     0.206117  5.67979e-05
     0.207863  4.57941e-05
      0.20936  3.86067e-05
     0.210664  3.36506e-05
     0.211873  2.99119e-05
     0.213046  2.69168e-05
     0.214248  2.43726e-05
