#         Time        inlet       outlet
  1.19998e-05            (0.0102426 0 0)            (0.0102342 -1.15726e-05 5.28593e-23)
  2.63998e-05            (0.0105336 0 0)            (0.0105343 -1.21613e-05 1.55094e-24)
  4.36791e-05            (0.0108829 0 0)            (0.0108835 -1.26363e-05 1.80548e-24)
   6.4415e-05            (0.011302 0 0)            (0.0113026 -1.3097e-05 2.16634e-24)
  8.92981e-05            (0.011805 0 0)            (0.0118056 -1.36447e-05 2.59995e-24)
  0.000119158            (0.0124085 0 0)            (0.012409 -1.43174e-05 3.11769e-24)
  0.000154992            (0.0131328 0 0)            (0.0131332 -1.51418e-05 3.74048e-24)
  0.000197997            (0.014002 0 0)            (0.0140024 -1.61459e-05 4.48648e-24)
  0.000249599            (0.015045 0 0)            (0.0150454 -1.73651e-05 5.37984e-24)
  0.000311517            (0.0162964 0 0)            (0.0162969 -1.88404e-05 6.44997e-24)
  0.000385806            (0.0177978 0 0)            (0.0177982 -2.06282e-05 7.72768e-24)
   0.00047496            (0.0195994 0 0)            (0.0195994 -2.27947e-05 9.25738e-24)
  0.000581944            (0.0217611 0 0)            (0.0217603 -2.54233e-05 1.10841e-23)
  0.000710352            (0.0243553 0 0)            (0.0243541 -2.8621e-05 1.32687e-23)
  0.000864481            (0.0274682 0 0)            (0.0274666 -3.25316e-05 1.58651e-23)
   0.00104938            (0.0312012 0 0)            (0.0311989 -3.73345e-05 1.89325e-23)
   0.00127118            (0.0356767 0 0)            (0.0356739 -4.32785e-05 2.25535e-23)
   0.00153721            (0.0410407 0 0)            (0.0410382 -5.07063e-05 2.67977e-23)
   0.00185628            (0.0474665 0 0)            (0.047464 -6.01293e-05 3.17191e-23)
    0.0022388            (0.0551573 0 0)            (0.0551542 -7.23069e-05 3.73488e-23)
   0.00269764            (0.0643604 0 0)            (0.0643586 -8.84495e-05 4.37252e-23)
   0.00324877            (0.0753757 0 0)            (0.0753789 -0.000110558 5.08003e-23)
   0.00390901            (0.0885051 0 0)            (0.08851 -0.000141847 5.81584e-23)
   0.00468407            (0.103807 0 0)            (0.103812 -0.000186646 6.45628e-23)
   0.00555602            (0.120849 0 0)            (0.120854 -0.000249169 6.83731e-23)
   0.00636284            (0.13643 0 0)            (0.136435 -0.000318649 6.22907e-23)
   0.00706697            (0.149859 0 0)            (0.149862 -0.000388596 5.45114e-23)
   0.00770371            (0.161852 0 0)            (0.161854 -0.00045951 4.9166e-23)
    0.0082882            (0.172725 0 0)            (0.172726 -0.000530852 4.49519e-23)
   0.00883129            (0.182701 0 0)            (0.182704 -0.000602174 4.15511e-23)
   0.00934244            (0.191974 0 0)            (0.191976 -0.00067326 3.88215e-23)
   0.00982634            (0.200641 0 0)            (0.200644 -0.00074358 3.64745e-23)
    0.0102879            (0.208804 0 0)            (0.208806 -0.000812845 3.44935e-23)
    0.0107301            (0.216524 0 0)            (0.216526 -0.000880639 3.27505e-23)
    0.0111555            (0.223853 0 0)            (0.223855 -0.000946584 3.12007e-23)
    0.0115651            (0.230819 0 0)            (0.230821 -0.00101024 2.97687e-23)
    0.0119618            (0.237476 0 0)            (0.237478 -0.00107146 2.85307e-23)
    0.0123464            (0.243843 0 0)            (0.243845 -0.0011299 2.73746e-23)
    0.0127202            (0.249948 0 0)            (0.249949 -0.00118537 2.63225e-23)
    0.0130845            (0.255818 0 0)            (0.255818 -0.00123767 2.53736e-23)
    0.0134399            (0.261463 0 0)            (0.261463 -0.00128657 2.44712e-23)
    0.0137866            (0.266894 0 0)            (0.266894 -0.00133179 2.36127e-23)
    0.0141258            (0.272131 0 0)            (0.272132 -0.00137317 2.28304e-23)
    0.0144583            (0.277191 0 0)            (0.277192 -0.00141058 2.21134e-23)
    0.0147844            (0.28208 0 0)            (0.282082 -0.00144385 2.14233e-23)
    0.0151043            (0.286806 0 0)            (0.286808 -0.00147287 2.07603e-23)
    0.0154188            (0.291382 0 0)            (0.291383 -0.00149755 2.01487e-23)
    0.0157285            (0.295819 0 0)            (0.295821 -0.00151781 1.9585e-23)
    0.0160335            (0.300123 0 0)            (0.300126 -0.00153323 1.90424e-23)
    0.0163341            (0.304297 0 0)            (0.3043 -0.00154345 1.85124e-23)
    0.0166304            (0.308345 0 0)            (0.308347 -0.00154809 1.80002e-23)
    0.0169224            (0.31227 0 0)            (0.312272 -0.00154681 1.75035e-23)
    0.0172107            (0.316082 0 0)            (0.316083 -0.0015392 1.70418e-23)
    0.0174954            (0.319783 0 0)            (0.319784 -0.001525 1.66025e-23)
    0.0177766            (0.323376 0 0)            (0.323377 -0.00150374 1.61742e-23)
    0.0180544            (0.326863 0 0)            (0.326865 -0.00147491 1.57575e-23)
    0.0183292            (0.330254 0 0)            (0.330254 -0.00143812 1.53703e-23)
    0.0186008            (0.333543 0 0)            (0.333543 -0.00139298 1.49741e-23)
    0.0188695            (0.336739 0 0)            (0.336738 -0.00133919 1.46128e-23)
    0.0191355            (0.339844 0 0)            (0.339841 -0.00127639 1.42583e-23)
    0.0193992            (0.342863 0 0)            (0.342859 -0.00120422 1.39322e-23)
    0.0196601            (0.345794 0 0)            (0.345788 -0.00112248 1.35865e-23)
    0.0199189            (0.348643 0 0)            (0.348635 -0.0010312 1.32701e-23)
    0.0201754            (0.351411 0 0)            (0.351401 -0.000930547 1.29609e-23)
    0.0204298            (0.354099 0 0)            (0.354087 -0.000820599 1.26576e-23)
     0.020682            (0.35671 0 0)            (0.356695 -0.000701623 1.23613e-23)
    0.0209324            (0.359246 0 0)            (0.359229 -0.00057391 1.2086e-23)
    0.0211808            (0.361707 0 0)            (0.361687 -0.000438251 1.17975e-23)
    0.0214274            (0.364097 0 0)            (0.364074 -0.000295077 1.1527e-23)
    0.0216724            (0.366417 0 0)            (0.36639 -0.000145392 1.12519e-23)
    0.0219157            (0.368667 0 0)            (0.368637 1.04624e-05 1.10021e-23)
    0.0221573            (0.370849 0 0)            (0.370816 0.000171401 1.07388e-23)
    0.0223976            (0.372967 0 0)            (0.37293 0.00033668 1.04883e-23)
    0.0226363            (0.375017 0 0)            (0.374977 0.000505167 1.02237e-23)
    0.0228738            (0.377005 0 0)            (0.376962 0.000676278 9.98313e-24)
    0.0231093            (0.378925 0 0)            (0.378879 0.000848561 9.7128e-24)
    0.0233436            (0.380783 0 0)            (0.380735 0.00102161 9.4648e-24)
    0.0235763            (0.382579 0 0)            (0.382529 0.00119451 9.20673e-24)
    0.0238076            (0.384312 0 0)            (0.38426 0.00136634 8.95313e-24)
    0.0240376            (0.385986 0 0)            (0.385933 0.00153661 8.71399e-24)
    0.0242661            (0.387599 0 0)            (0.387545 0.00170449 8.46729e-24)
    0.0244934            (0.389155 0 0)            (0.3891 0.00187008 8.23731e-24)
    0.0247196            (0.390653 0 0)            (0.390597 0.00203288 8.01082e-24)
    0.0249446            (0.392095 0 0)            (0.392038 0.00219233 7.79784e-24)
    0.0251685            (0.393481 0 0)            (0.393423 0.00234826 7.58568e-24)
    0.0253912            (0.394812 0 0)            (0.394752 0.0025007 7.37662e-24)
    0.0256131            (0.39609 0 0)            (0.396027 0.00264975 7.1761e-24)
    0.0258338            (0.397313 0 0)            (0.397248 0.00279484 6.96831e-24)
    0.0260537            (0.398485 0 0)            (0.398417 0.00293631 6.76716e-24)
    0.0262728            (0.399605 0 0)            (0.399534 0.00307412 6.56523e-24)
     0.026491            (0.400673 0 0)            (0.400599 0.00320825 6.3604e-24)
    0.0267085            (0.401691 0 0)            (0.401613 0.00333883 6.15245e-24)
    0.0269251            (0.402659 0 0)            (0.402577 0.00346589 5.94164e-24)
    0.0271409            (0.403577 0 0)            (0.403491 0.00358924 5.73209e-24)
    0.0273556            (0.404444 0 0)            (0.404354 0.00370847 5.51616e-24)
    0.0275682            (0.405257 0 0)            (0.405164 0.00382311 5.27971e-24)
     0.027779            (0.406019 0 0)            (0.405922 0.00393326 5.05199e-24)
     0.027988            (0.406731 0 0)            (0.40663 0.00403898 4.82715e-24)
     0.028195            (0.407392 0 0)            (0.407288 0.00414018 4.59592e-24)
    0.0284003            (0.408005 0 0)            (0.407898 0.00423688 4.37214e-24)
    0.0286038            (0.408572 0 0)            (0.408462 0.00432908 4.15342e-24)
    0.0288057            (0.409093 0 0)            (0.40898 0.00441641 3.93359e-24)
    0.0290062            (0.409569 0 0)            (0.409454 0.00449912 3.72128e-24)
     0.029205            (0.410001 0 0)            (0.409884 0.00457745 3.5084e-24)
    0.0294025            (0.410391 0 0)            (0.410271 0.00465203 3.30564e-24)
    0.0295986            (0.410739 0 0)            (0.410616 0.00472254 3.11823e-24)
    0.0297931            (0.411046 0 0)            (0.41092 0.00478915 2.93622e-24)
    0.0299863            (0.411313 0 0)            (0.411183 0.00485218 2.762e-24)
    0.0301782            (0.41154 0 0)            (0.411406 0.00491174 2.58995e-24)
     0.030369            (0.41173 0 0)            (0.411591 0.00496731 2.43383e-24)
    0.0305583            (0.411881 0 0)            (0.411738 0.00501875 2.28043e-24)
    0.0307464            (0.411995 0 0)            (0.411847 0.0050663 2.1276e-24)
    0.0309332            (0.412073 0 0)            (0.411919 0.00511087 1.97283e-24)
     0.031119            (0.412115 0 0)            (0.411956 0.0051526 1.82695e-24)
    0.0313037            (0.412122 0 0)            (0.411958 0.00519161 1.68427e-24)
    0.0314875            (0.412095 0 0)            (0.411925 0.00522844 1.538e-24)
    0.0316703            (0.412034 0 0)            (0.411857 0.005264 1.38505e-24)
     0.031852            (0.41194 0 0)            (0.411755 0.00529821 1.24217e-24)
    0.0320327            (0.411813 0 0)            (0.41162 0.00533093 1.10164e-24)
    0.0322125            (0.411653 0 0)            (0.411452 0.00536257 9.7119e-25)
    0.0323914            (0.411462 0 0)            (0.411252 0.00539358 8.50656e-25)
    0.0325693            (0.41124 0 0)            (0.411021 0.00542482 6.78255e-25)
    0.0327465            (0.410987 0 0)            (0.410759 0.00545626 5.32704e-25)
    0.0329227            (0.410703 0 0)            (0.410465 0.00548784 3.89676e-25)
    0.0330982            (0.41039 0 0)            (0.410141 0.00551969 2.46263e-25)
    0.0332728            (0.410047 0 0)            (0.409787 0.00555171 1.10211e-25)
    0.0334467            (0.409675 0 0)            (0.409404 0.00558322 -1.28568e-26)
    0.0336198            (0.409274 0 0)            (0.408992 0.00561594 -1.83495e-25)
    0.0337922            (0.408845 0 0)            (0.408551 0.00564892 -3.27292e-25)
    0.0339639            (0.408388 0 0)            (0.408082 0.00568215 -4.75041e-25)
    0.0341349            (0.407903 0 0)            (0.407585 0.00571542 -6.19998e-25)
    0.0343052            (0.407391 0 0)            (0.40706 0.00574824 -7.70802e-25)
    0.0344748            (0.406853 0 0)            (0.406509 0.00578087 -9.08405e-25)
    0.0346437            (0.406287 0 0)            (0.40593 0.0058132 -1.02608e-24)
    0.0348121            (0.405695 0 0)            (0.405324 0.00584595 -1.18132e-24)
    0.0349798            (0.405078 0 0)            (0.404693 0.00587916 -1.32797e-24)
     0.035147            (0.404434 0 0)            (0.404034 0.00591246 -1.47317e-24)
    0.0353135            (0.403765 0 0)            (0.403349 0.00594487 -1.58013e-24)
    0.0354795            (0.40307 0 0)            (0.402637 0.00597673 -1.69144e-24)
     0.035645            (0.402351 0 0)            (0.401898 0.00600809 -1.80807e-24)
    0.0358102            (0.401606 0 0)            (0.401132 0.00603895 -1.9315e-24)
    0.0359749            (0.400836 0 0)            (0.400341 0.00607023 -1.99503e-24)
    0.0361391            (0.400042 0 0)            (0.399523 0.00610314 -2.08937e-24)
    0.0363029            (0.399223 0 0)            (0.39868 0.00613856 -2.14339e-24)
    0.0364665            (0.398379 0 0)            (0.397811 0.00617589 -2.25064e-24)
    0.0366297            (0.397511 0 0)            (0.396917 0.0062153 -2.40027e-24)
    0.0367927            (0.396618 0 0)            (0.395999 0.00625834 -2.59573e-24)
    0.0369556            (0.395699 0 0)            (0.395055 0.00630485 -2.79723e-24)
     0.037118            (0.394758 0 0)            (0.394089 0.00635502 -2.99958e-24)
    0.0372799            (0.393794 0 0)            (0.393101 0.00641012 -3.24136e-24)
    0.0374413            (0.392807 0 0)            (0.39209 0.00647145 -3.51206e-24)
    0.0376023            (0.391799 0 0)            (0.391058 0.00653167 -3.44745e-24)
    0.0377626            (0.390769 0 0)            (0.390003 0.00659309 -3.57277e-24)
    0.0379223            (0.389719 0 0)            (0.388928 0.00665554 -3.69023e-24)
    0.0380813            (0.388649 0 0)            (0.387833 0.00671893 -3.79678e-24)
    0.0382398            (0.387558 0 0)            (0.386716 0.00678268 -3.88177e-24)
    0.0383976            (0.386449 0 0)            (0.385579 0.00684623 -3.94686e-24)
    0.0385549            (0.385319 0 0)            (0.38442 0.00690918 -3.94119e-24)
    0.0387117            (0.38417 0 0)            (0.383237 0.00697264 -3.87839e-24)
    0.0388678            (0.383002 0 0)            (0.382019 0.00703366 -3.46024e-24)
    0.0390235            (0.381815 0 0)            (0.38078 0.00709351 -3.12284e-24)
    0.0391786            (0.38061 0 0)            (0.379562 0.00716455 -3.70349e-24)
    0.0393332            (0.379386 0 0)            (0.378325 0.00723816 -3.73104e-24)
    0.0394873            (0.378144 0 0)            (0.377069 0.00731586 -3.78761e-24)
    0.0396409            (0.376884 0 0)            (0.375797 0.00739486 -3.69004e-24)
    0.0397942            (0.375604 0 0)            (0.374509 0.00747377 -3.49409e-24)
     0.039947            (0.374307 0 0)            (0.373211 0.00754853 -3.06044e-24)
    0.0400996            (0.372991 0 0)            (0.371911 0.00761079 -2.03832e-24)
    0.0402519            (0.371655 0 0)            (0.370601 0.00766536 -1.4376e-24)
     0.040404            (0.3703 0 0)            (0.369229 0.00775653 -3.56331e-24)
    0.0405559            (0.368927 0 0)            (0.367782 0.0078965 -6.55084e-24)
    0.0407076            (0.367534 0 0)            (0.366321 0.00803813 -6.45662e-24)
    0.0408592            (0.366121 0 0)            (0.364841 0.00818367 -6.4766e-24)
    0.0410106            (0.36469 0 0)            (0.363343 0.00833285 -6.54943e-24)
    0.0411617            (0.36324 0 0)            (0.361827 0.00848469 -6.63223e-24)
    0.0413124            (0.361774 0 0)            (0.360294 0.00863905 -6.71619e-24)
    0.0414627            (0.360293 0 0)            (0.358745 0.00879596 -6.80039e-24)
    0.0416125            (0.358795 0 0)            (0.357179 0.00895544 -6.89569e-24)
     0.041762            (0.357282 0 0)            (0.355598 0.00911679 -6.97622e-24)
    0.0419108            (0.355756 0 0)            (0.354002 0.00928059 -7.03811e-24)
    0.0420593            (0.354214 0 0)            (0.352391 0.0094465 -7.10189e-24)
    0.0422071            (0.352659 0 0)            (0.350764 0.00961404 -7.15068e-24)
    0.0423545            (0.351091 0 0)            (0.34912 0.00978239 -7.15118e-24)
    0.0425013            (0.349511 0 0)            (0.34745 0.00995093 -7.10821e-24)
    0.0426475            (0.347918 0 0)            (0.345755 0.010119 -6.95339e-24)
    0.0427932            (0.346312 0 0)            (0.344116 0.0102835 -6.70423e-24)
    0.0429385            (0.344693 0 0)            (0.342468 0.0104465 -6.66792e-24)
    0.0430834            (0.343061 0 0)            (0.340806 0.0106074 -6.66579e-24)
    0.0432279            (0.341416 0 0)            (0.339136 0.0107636 -6.54472e-24)
    0.0433721            (0.339756 0 0)            (0.337461 0.0109125 -6.28678e-24)
    0.0435161            (0.338082 0 0)            (0.335798 0.0110479 -5.69093e-24)
    0.0436599            (0.336392 0 0)            (0.334123 0.0111753 -5.46437e-24)
    0.0438036            (0.334687 0 0)            (0.332358 0.0113218 -6.86831e-24)
    0.0439469            (0.33297 0 0)            (0.330541 0.0114726 -7.67856e-24)
    0.0440898            (0.331241 0 0)            (0.328721 0.011616 -7.71041e-24)
    0.0442323            (0.3295 0 0)            (0.326894 0.0117611 -7.81104e-24)
    0.0443743            (0.327749 0 0)            (0.325061 0.0119039 -7.8497e-24)
    0.0445159            (0.325987 0 0)            (0.323221 0.0120398 -7.78176e-24)
    0.0446571            (0.324213 0 0)            (0.321375 0.0121694 -7.62392e-24)
    0.0447978            (0.322431 0 0)            (0.31952 0.0122916 -7.47788e-24)
    0.0449382            (0.320637 0 0)            (0.317654 0.0124039 -7.29969e-24)
    0.0450781            (0.318833 0 0)            (0.315773 0.0125054 -7.10392e-24)
    0.0452177            (0.317019 0 0)            (0.313861 0.0125972 -6.99177e-24)
     0.045357            (0.315193 0 0)            (0.311947 0.0126765 -6.64276e-24)
    0.0454959            (0.313357 0 0)            (0.310114 0.0127345 -5.86042e-24)
    0.0456346            (0.311509 0 0)            (0.308277 0.0127758 -5.53612e-24)
    0.0457732            (0.309648 0 0)            (0.306462 0.0127953 -4.95464e-24)
    0.0459115            (0.307777 0 0)            (0.304616 0.0127962 -4.63215e-24)
    0.0460497            (0.305892 0 0)            (0.302652 0.0127909 -5.1384e-24)
    0.0461878            (0.303995 0 0)            (0.300681 0.0127667 -4.92048e-24)
    0.0463258            (0.302084 0 0)            (0.298702 0.0127182 -4.54113e-24)
    0.0464639            (0.300159 0 0)            (0.296717 0.0126429 -4.1135e-24)
     0.046602            (0.29822 0 0)            (0.294725 0.0125369 -3.6468e-24)
    0.0467399            (0.296268 0 0)            (0.292728 0.0123887 -3.11592e-24)
    0.0468776            (0.294307 0 0)            (0.290729 0.0121979 -2.5392e-24)
    0.0470151            (0.292335 0 0)            (0.288729 0.0119659 -1.94674e-24)
    0.0471524            (0.290352 0 0)            (0.286724 0.0116956 -1.14563e-24)
     0.047289            (0.288366 0 0)            (0.284715 0.011398 -3.14436e-25)
    0.0474251            (0.286374 0 0)            (0.282674 0.0110729 2.69882e-25)
    0.0475606            (0.284378 0 0)            (0.2808 0.0107034 1.84798e-24)
    0.0476956            (0.282377 0 0)            (0.278877 0.010285 2.64978e-24)
    0.0478301            (0.280372 0 0)            (0.276862 0.00983625 3.28754e-24)
     0.047964            (0.278361 0 0)            (0.274857 0.00935214 4.26323e-24)
    0.0480976            (0.276344 0 0)            (0.27286 0.00882797 5.25131e-24)
    0.0482308            (0.274322 0 0)            (0.270871 0.00824391 6.35965e-24)
    0.0483634            (0.272295 0 0)            (0.26889 0.007595 7.56151e-24)
    0.0484957            (0.270262 0 0)            (0.266912 0.00687941 8.81454e-24)
    0.0486276            (0.268225 0 0)            (0.264939 0.00609619 1.01197e-23)
    0.0487591            (0.266181 0 0)            (0.262967 0.00524222 1.15478e-23)
    0.0488903            (0.264132 0 0)            (0.260993 0.00431834 1.28273e-23)
     0.049021            (0.262079 0 0)            (0.258991 0.00332573 1.38888e-23)
    0.0491514            (0.26002 0 0)            (0.257144 0.00224939 1.60168e-23)
    0.0492814            (0.257956 0 0)            (0.25522 0.00109757 1.77009e-23)
     0.049411            (0.255889 0 0)            (0.253302 -0.000133395 1.9328e-23)
    0.0495403            (0.253816 0 0)            (0.251391 -0.00144539 2.10442e-23)
    0.0496691            (0.251741 0 0)            (0.249487 -0.00284016 2.28103e-23)
    0.0497975            (0.249662 0 0)            (0.247588 -0.00431728 2.46242e-23)
    0.0499255            (0.247579 0 0)            (0.245693 -0.00587948 2.64844e-23)
    0.0500531            (0.245493 0 0)            (0.2438 -0.00752404 2.83771e-23)
    0.0501804            (0.243402 0 0)            (0.241901 -0.00925082 3.03288e-23)
    0.0503073            (0.24131 0 0)            (0.239982 -0.011056 3.22613e-23)
    0.0504338            (0.239213 0 0)            (0.237988 -0.0129379 3.40538e-23)
      0.05056            (0.237112 0 0)            (0.236136 -0.0149116 3.6639e-23)
    0.0506858            (0.235009 0 0)            (0.234309 -0.0169713 3.87564e-23)
    0.0508113            (0.232903 0 0)            (0.232488 -0.0191161 4.10652e-23)
    0.0509364            (0.230795 0 0)            (0.230665 -0.0213408 4.33022e-23)
    0.0510611            (0.228683 0 0)            (0.22882 -0.0236429 4.55734e-23)
    0.0511855            (0.226568 0 0)            (0.226947 -0.0260185 4.79103e-23)
    0.0513095            (0.224452 0 0)            (0.225038 -0.0284624 5.01103e-23)
    0.0514332            (0.222332 0 0)            (0.223043 -0.0309766 5.2426e-23)
    0.0515566            (0.22021 0 0)            (0.221075 -0.0335551 5.47406e-23)
    0.0516798            (0.218084 0 0)            (0.219114 -0.0361896 5.68916e-23)
    0.0518027            (0.215954 0 0)            (0.217256 -0.0388844 5.95257e-23)
    0.0519253            (0.213822 0 0)            (0.215383 -0.0416309 6.18781e-23)
    0.0520477            (0.211686 0 0)            (0.213482 -0.0444244 6.41347e-23)
    0.0521697            (0.209548 0 0)            (0.21155 -0.0472538 6.63362e-23)
    0.0522914            (0.207409 0 0)            (0.209579 -0.0501095 6.85613e-23)
    0.0524127            (0.20527 0 0)            (0.207556 -0.0529801 7.07457e-23)
    0.0525335            (0.20313 0 0)            (0.205454 -0.0558567 7.29294e-23)
    0.0526541            (0.200989 0 0)            (0.203465 -0.0587348 7.49828e-23)
    0.0527743            (0.198848 0 0)            (0.20152 -0.0615993 7.69972e-23)
    0.0528942            (0.196705 0 0)            (0.199505 -0.0644448 7.87059e-23)
    0.0530139            (0.194559 0 0)            (0.19756 -0.0672694 8.09515e-23)
    0.0531333            (0.192411 0 0)            (0.195594 -0.0700613 8.28988e-23)
    0.0532524            (0.190262 0 0)            (0.193603 -0.0728103 8.47908e-23)
    0.0533713            (0.18811 0 0)            (0.191578 -0.0755117 8.66692e-23)
    0.0534901            (0.185955 0 0)            (0.189498 -0.0781571 8.84482e-23)
    0.0536086            (0.183798 0 0)            (0.187382 -0.080739 9.01575e-23)
     0.053727            (0.181636 0 0)            (0.185389 -0.0832532 9.16179e-23)
    0.0538454            (0.17947 0 0)            (0.183415 -0.085692 9.31314e-23)
    0.0539637            (0.177297 0 0)            (0.181416 -0.0880524 9.47559e-23)
     0.054082            (0.175121 0 0)            (0.179396 -0.0903274 9.62552e-23)
    0.0542003            (0.172937 0 0)            (0.17734 -0.0925137 9.78648e-23)
    0.0543187            (0.170747 0 0)            (0.175249 -0.0946026 9.9157e-23)
    0.0544372            (0.168548 0 0)            (0.173113 -0.0965898 1.00684e-22)
    0.0545558            (0.166342 0 0)            (0.170906 -0.098469 1.02094e-22)
    0.0546747            (0.164126 0 0)            (0.168654 -0.100238 1.03513e-22)
    0.0547938            (0.161899 0 0)            (0.166525 -0.101896 1.04457e-22)
    0.0549131            (0.159664 0 0)            (0.164419 -0.103441 1.05478e-22)
    0.0550328            (0.157415 0 0)            (0.162287 -0.104874 1.06681e-22)
    0.0551528            (0.155156 0 0)            (0.160166 -0.106198 1.07843e-22)
    0.0552732            (0.152883 0 0)            (0.157948 -0.107409 1.08698e-22)
    0.0553941            (0.150596 0 0)            (0.155694 -0.108506 1.09748e-22)
    0.0555155            (0.148294 0 0)            (0.1534 -0.109487 1.10674e-22)
    0.0556375            (0.145978 0 0)            (0.151054 -0.110353 1.11429e-22)
      0.05576            (0.143644 0 0)            (0.148611 -0.111105 1.12316e-22)
    0.0558832            (0.141293 0 0)            (0.146248 -0.11174 1.12693e-22)
    0.0560071            (0.138923 0 0)            (0.143952 -0.11226 1.12991e-22)
    0.0561317            (0.136536 0 0)            (0.141624 -0.112664 1.13363e-22)
     0.056257            (0.134129 0 0)            (0.139272 -0.112956 1.13741e-22)
    0.0563832            (0.1317 0 0)            (0.136882 -0.11314 1.14045e-22)
    0.0565101            (0.129253 0 0)            (0.134429 -0.113215 1.1402e-22)
    0.0566377            (0.126787 0 0)            (0.131937 -0.113184 1.14045e-22)
    0.0567663            (0.124297 0 0)            (0.129397 -0.113048 1.14097e-22)
    0.0568957            (0.121787 0 0)            (0.126798 -0.112812 1.13894e-22)
     0.057026            (0.119255 0 0)            (0.124139 -0.112481 1.13645e-22)
    0.0571573            (0.116698 0 0)            (0.121583 -0.112055 1.12906e-22)
    0.0572896            (0.114118 0 0)            (0.119016 -0.111538 1.12309e-22)
    0.0574228            (0.111515 0 0)            (0.116415 -0.110935 1.11657e-22)
    0.0575571            (0.108886 0 0)            (0.113807 -0.110253 1.10978e-22)
    0.0576925            (0.106231 0 0)            (0.111116 -0.109494 1.10053e-22)
    0.0578289            (0.103551 0 0)            (0.108386 -0.108664 1.08991e-22)
    0.0579665            (0.100844 0 0)            (0.105617 -0.107763 1.07898e-22)
    0.0581054            (0.0981076 0 0)            (0.102804 -0.1068 1.06741e-22)
    0.0582452            (0.0953484 0 0)            (0.0999395 -0.105781 1.05221e-22)
    0.0583858            (0.0925685 0 0)            (0.0969888 -0.104712 1.03658e-22)
    0.0585274            (0.089765 0 0)            (0.0941313 -0.103594 1.01682e-22)
    0.0586699            (0.0869404 0 0)            (0.0912758 -0.102434 9.97731e-23)
    0.0588134            (0.0840918 0 0)            (0.0883921 -0.101234 9.79794e-23)
    0.0589577            (0.0812219 0 0)            (0.0855127 -0.100003 9.61333e-23)
    0.0591031            (0.0783274 0 0)            (0.0825542 -0.0987428 9.4078e-23)
    0.0592495            (0.0754112 0 0)            (0.0795673 -0.0974572 9.20714e-23)
    0.0593968            (0.0724701 0 0)            (0.076551 -0.0961501 8.99036e-23)
    0.0595453            (0.0695038 0 0)            (0.0735021 -0.0948252 8.77605e-23)
    0.0596949            (0.066512 0 0)            (0.0704179 -0.0934882 8.56377e-23)
    0.0598454            (0.0634977 0 0)            (0.0672949 -0.0921452 8.34248e-23)
    0.0599973            (0.0604541 0 0)            (0.0640815 -0.0907982 8.13657e-23)
    0.0601503            (0.0573844 0 0)            (0.0609382 -0.0894484 7.89043e-23)
    0.0603046            (0.0542847 0 0)            (0.0577818 -0.0880987 7.66347e-23)
    0.0604602            (0.0511581 0 0)            (0.054602 -0.0867542 7.42837e-23)
    0.0606172            (0.0480008 0 0)            (0.0514261 -0.0854196 7.2101e-23)
    0.0607754            (0.0448161 0 0)            (0.0481675 -0.0840965 6.96103e-23)
     0.060935            (0.0415999 0 0)            (0.0448893 -0.0827846 6.73067e-23)
    0.0610962            (0.0383518 0 0)            (0.0415685 -0.0814858 6.49503e-23)
    0.0612586            (0.0350753 0 0)            (0.0382161 -0.0802031 6.25379e-23)
    0.0614224            (0.0317699 0 0)            (0.0348347 -0.0789379 6.02004e-23)
    0.0615874            (0.0284395 0 0)            (0.0314272 -0.0776936 5.78354e-23)
    0.0617538            (0.0250798 0 0)            (0.0279864 -0.0764692 5.5568e-23)
    0.0619216            (0.0216905 0 0)            (0.0245065 -0.0752666 5.32363e-23)
     0.062091            (0.018267 0 0)            (0.0209804 -0.0740867 5.10881e-23)
    0.0622621            (0.014809 0 0)            (0.0174585 -0.0729284 4.88942e-23)
    0.0624349            (0.0113159 0 0)            (0.01392 -0.0717928 4.68464e-23)
    0.0626095            (0.00778725 0 0)            (0.0103271 -0.0706805 4.46835e-23)
    0.0627861            (0.00421794 0 0)            (0.00669473 -0.06959 4.26382e-23)
    0.0629645            (0.000611962 0 0)            (0.00302808 -0.068525 4.06843e-23)
    0.0631443            (-0.00302164 0 0)            (-0.000664538 -0.0674858 3.88078e-23)
    0.0633256            (-0.00668305 0 0)            (-0.00438428 -0.0664728 3.68075e-23)
    0.0635086            (-0.0103774 0 0)            (-0.00813482 -0.0654864 3.49513e-23)
    0.0636933            (-0.0141049 0 0)            (-0.0119161 -0.0645271 3.31696e-23)
      0.06388            (-0.0178712 0 0)            (-0.0157338 -0.0635926 3.14551e-23)
     0.064069            (-0.0216821 0 0)            (-0.0195933 -0.0626837 2.9812e-23)
    0.0642605            (-0.0255383 0 0)            (-0.0234934 -0.0618004 2.81992e-23)
     0.064455            (-0.029452 0 0)            (-0.0274328 -0.0609399 2.66951e-23)
    0.0646528            (-0.0334303 0 0)            (-0.0314466 -0.0601019 2.52701e-23)
    0.0648542            (-0.0374753 0 0)            (-0.0355305 -0.0592863 2.3821e-23)
    0.0650584            (-0.0415703 0 0)            (-0.0396623 -0.0584932 2.24745e-23)
     0.065265            (-0.0457099 0 0)            (-0.0438352 -0.0577242 2.11178e-23)
    0.0654726            (-0.0498626 0 0)            (-0.048018 -0.0569838 1.97082e-23)
    0.0656803            (-0.0540088 0 0)            (-0.0521938 -0.0562704 1.8177e-23)
    0.0658879            (-0.0581481 0 0)            (-0.0563524 -0.0555824 1.67479e-23)